Created by Ryther's code on 2022-12-03 10:12:49.306468

    8192 atoms
    9600 bonds
    17280 angles
    18432 dihedrals
    3072 impropers

    6 atom types
    8 bond types
    12 angle types
    4 dihedral types
    2 improper types

0.00000000 61.42164422 xlo xhi
0.00000000 52.29896752 ylo yhi
0.00000000 65.08321749 zlo zhi
-30.4994479 -0.34116781 0.36153643 xy xz yz 

Masses 

    1    12.0107
    2    51.9961
    3    1.00794
    4    14.0067
    5    15.9994
    6    15.9994

Pair Coeffs

    1       0.10500      3.43085 # C_R C_R
    2       0.01500      2.69319 # Cr6f3 Cr6f3
    3       0.04400      2.57113 # H_ H_
    4       0.06900      3.26069 # N_3 N_3
    5       0.06000      3.11815 # O_2_M O_2_M
    6       0.06000      3.11815 # O_3_f O_3_f

Bond Coeffs

    1     238.66736      1.99011 # Cr6f3 O_2_M bond order=0.5
    2     714.55744      1.26901 # C_R O_2_M bond order=1.5
    3     391.66951      1.45800 # C_R C_R bond order=1.0
    4     238.64661      1.99011 # Cr6f3 O_3_f bond order=0.5
    5     462.65505      1.37926 # C_R C_R bond order=1.5
    6     357.44038      1.08142 # C_R H_ bond order=1.0
    7     560.26893      1.42319 # C_R N_3 bond order=1.0
    8     527.90376      1.04442 # H_ N_3 bond order=1.0

Angle Coeffs

    1  cosine/periodic         81.58141           -1            3 # C_R O_2_M Cr6f3
    2  cosine/periodic        206.77843           -1            3 # O_2_M C_R O_2_M
    3  cosine/periodic        137.71425           -1            3 # C_R C_R O_2_M
    4  cosine/periodic        118.19119            1            4 # O_2_M Cr6f3 O_2_M
    5  cosine/periodic        118.18091            1            4 # O_2_M Cr6f3 O_3_f
    6  fourier                156.51757      0.34375      0.37500      0.28125 # Cr6f3 O_3_f Cr6f3
    7  cosine/periodic        111.29751           -1            3 # C_R C_R C_R
    8  cosine/periodic         57.28902           -1            3 # C_R C_R H_
    9  cosine/periodic        102.18328           -1            3 # C_R C_R C_R
    10 cosine/periodic        141.17366           -1            3 # C_R C_R N_3
    11 fourier                150.57460      0.31751      0.31322      0.27250 # C_R N_3 H_
    12 fourier                 97.01717      0.31751      0.31322      0.27250 # H_ N_3 H_

Dihedral Coeffs

    1       6.73711           -1            2 # X C_R O_2_M X bond order=1.5
    2       1.25000           -1            2 # X C_R C_R X bond order=1.0
    3       3.36856           -1            2 # X C_R C_R X bond order=1.5
    4       0.25000           -1            6 # X C_R N_3 X bond order=1.0

Improper Coeffs

    1      16.66667      1.00000     -1.00000      0.00000            1 # C_R X X X O_2 present=True
    2       2.00000      1.00000     -1.00000      0.00000            1 # C_R X X X O_2 present=False

Atoms

    1 1     5     -0.86000     -1.05502     10.53127     10.44821
    2 1     5     -0.83000     -2.58099      8.33723     11.11693
    3 1     1      0.97500     -2.18152      7.45590     10.30439
    4 1     5     -0.83100     -1.02249      6.97050     10.41894
    5 1     5     -0.85700      1.63747      6.77027     11.09590
    6 1     1      1.02000      2.21220      7.57909     10.31095
    7 1     5     -0.78500      2.07077      8.82327     10.46882
    8 1     5     -0.78700      0.89448     11.20086     11.17271
    9 1     1      1.01900     -0.03218     11.26002     10.31761
   10 1     5     -0.86000     -0.82164     11.23125     13.23226
   11 1     5     -0.83100     -2.08422      8.87495     13.88627
   12 1     1      0.97500     -2.26115      7.63208     14.01843
   13 1     5     -0.83100     -1.75287      6.82860     13.18557
   14 1     5     -0.85700      0.90026      6.87826     13.87634
   15 1     1      1.02000      2.05781      7.35059     14.03812
   16 1     5     -0.78500      2.50689      8.20768     13.22574
   17 1     5     -0.78700      1.09630     10.46006     13.94525
   18 1     1      1.01900      0.11850     11.24707     14.08008
   19 1     2      1.93700     -1.52474      9.67762     12.16954
   20 1     2      1.93200     -0.05524      6.99235     12.14513
   21 1     2      1.39100      1.52764      9.61078     12.20227
   22 1     6     -1.23700     -0.01712      8.75812     12.17169
   23 1     5     -0.86000      8.46539      1.97425      2.94721
   24 1     5     -0.83000      9.73533      4.33231      2.29124
   25 1     1      0.97500      9.92964      5.57569      2.18254
   26 1     5     -0.83100      9.43367      6.36588      3.03698
   27 1     5     -0.85700      6.77224      6.31590      2.37246
   28 1     1      1.02000      5.61197      5.84639      2.22197
   29 1     5     -0.78500      5.15462      5.00062      3.04093
   30 1     5     -0.78700      6.52125      2.73821      2.29367
   31 1     1      1.01900      7.49326      1.94952      2.13904
   32 1     5     -0.86000      8.75401      2.62211      5.72261
   33 1     5     -0.83100     10.25663      4.82275      5.06994
   34 1     1      0.97500      9.84990      5.64872      5.93370
   35 1     5     -0.83100      8.70509      6.16611      5.81286
   36 1     5     -0.85700      6.04927      6.41422      5.14950
   37 1     1      1.02000      5.48227      5.60746      5.94167
   38 1     5     -0.78500      5.62990      4.36468      5.78752
   39 1     5     -0.78700      6.77428      1.98542      5.04455
   40 1     1      1.01900      7.72484      1.90678      5.86996
   41 1     2      1.93700      9.19292      3.50425      4.00872
   42 1     2      1.93200      7.73716      6.18813      4.09042
   43 1     2      1.39100      6.13486      3.58432      4.04117
   44 1     6     -1.23700      7.68740      4.42505      4.04370
   45 1     1     -0.27000     26.42723      5.21701      0.02697
   46 1     1     -0.15000     10.77569      6.10952      1.07926
   47 1     1      0.35600     10.82576      7.53535     17.12861
   48 1     1     -0.26400     11.63763      7.95682     16.06531
   49 1     1     -0.15700     -3.09042      7.11142     15.13307
   50 1     1      0.36700     27.02492      5.85510     31.48552
   51 1     4     -0.89900     27.24868      4.98122     30.37260
   52 1     3      0.17800     25.85037      4.39378     32.52967
   53 1     3      0.17800     11.78600      9.02033     15.92006
   54 1     4     -0.88900     10.21684      8.52074     17.97164
   55 1     3      0.35200     26.31896      4.69834     29.98664
   56 1     3      0.40300     -1.96791      4.16970     15.13924
   57 1     3      0.39900      9.45363      8.95332      0.86757
   58 1     3      0.34800     10.97532      9.10541     18.39150
   59 1     1     -0.27000     -2.49466      6.50699      8.03697
   60 1     1     -0.15000     -3.07680      6.98505      9.21991
   61 1     1      0.35600     26.21901      6.99768      9.32990
   62 1     1     -0.26400     10.30115      7.09286      7.89908
   63 1     1     -0.15700     10.72773      6.04763      7.06576
   64 1     1      0.36700     11.96825      5.41596      7.35082
   65 1     4     -0.89900     12.47813      4.32240      6.57816
   66 1     3      0.17800     -1.41580      6.49376      7.93094
   67 1     3      0.17800      9.35743      7.59128      7.71027
   68 1     4     -0.88900     25.54470      7.41617     10.52306
   69 1     3      0.34000     12.63521      4.64208      5.59576
   70 1     3      0.40300     11.78356      3.54120      6.59485
   71 1     3      0.39900     25.73560      8.43020     10.68488
   72 1     3      0.34800     25.90901      6.85857     11.32920
   73 1     1     -0.27000      8.84656      0.44628      7.52165
   74 1     1     -0.15000      7.64974      0.93973      6.98464
   75 1     1      0.35600     -1.12114     13.44712      7.43958
   76 1     1     -0.26400     -1.12495     12.55841      8.51387
   77 1     1     -0.15700      0.05545     12.22026      9.18984
   78 1     1      0.36700     -6.40448     25.70364      8.59377
   79 1     4     -0.89900     -5.13772     25.21735      9.05309
   80 1     3      0.17800      9.79794      0.74894      7.09897
   81 1     3      0.17800     -2.07274     12.13718      8.82887
   82 1     4     -0.88900     -2.38538     13.75327      6.83857
   83 1     3      0.35200     -5.14377     24.17370      9.01422
   84 1     3      0.40300      2.53055     12.80312     10.35523
   85 1     3      0.39900      5.00837      0.68380      6.08979
   86 1     3      0.34800     -2.54082     14.78628      6.87813
   87 1     1     -0.27000     -0.69126     13.39829     15.05658
   88 1     1     -0.15000      0.07188     12.22480     15.20358
   89 1     1      0.35600      0.75809     12.00458     16.41982
   90 1     1     -0.26400     -6.95764     25.94956      1.18292
   91 1     1     -0.15700      7.50088      0.95450      1.04081
   92 1     1      0.36700      6.58887      1.32135     32.39531
   93 1     4     -0.89900      5.77831      2.49596     32.21338
   94 1     3      0.17800     -1.20739     13.58279     14.12200
   95 1     3      0.17800     -6.40333     25.79088      2.10033
   96 1     4     -0.88900      1.53160     10.80746     16.61432
   97 1     3      0.35200      5.27919      2.46364     31.29517
   98 1     3      0.40300      6.42013      3.32066     32.17308
   99 1     3      0.39900      0.86909      9.99832     16.61098
  100 1     3      0.34800      1.99075     10.81144     17.55369
  101 1     1     -0.27000      4.20713      7.47559     15.28229
  102 1     1     -0.15000      2.92178      6.91483     15.16515
  103 1     1      0.35600      2.50309      6.45087      0.17072
  104 1     1     -0.26400      3.36332      6.11548      1.22017
  105 1     1     -0.15700      4.75467      6.28169      1.10318
  106 1     1      0.36700      5.06426      7.14133     16.34117
  107 1     4     -0.89900      6.37523      7.73022     16.40813
  108 1     3      0.17800      4.55513      8.18277     14.53948
  109 1     3      0.17800      2.93413      5.73104      2.13820
  110 1     4     -0.88900      1.08727      6.31549      0.34605
  111 1     3      0.35200      6.50824      8.43362     15.64608
  112 1     3      0.40300      7.07002      6.97005     16.22615
  113 1     3      0.39900      0.80145      6.90252      1.16288
  114 1     3      0.34800      0.88049      5.31678      0.57615
  115 1     1     -0.27000      3.29640      7.87474      8.09046
  116 1     1     -0.15000      3.06607      7.06182      9.21159
  117 1     1      0.35600      3.63170      5.76454      9.24938
  118 1     1     -0.26400      4.39679      5.31084      8.16178
  119 1     1     -0.15700      4.62778      6.12389      7.04096
  120 1     1      0.36700      4.05716      7.41871      7.00055
  121 1     4     -0.89900      4.22772      8.25946      5.84605
  122 1     3      0.17800      2.85458      8.86345      8.04940
  123 1     3      0.17800      4.84015      4.32349      8.20435
  124 1     4     -0.88900      3.45073      4.91824     10.39830
  125 1     3      0.35200      3.76267      9.18516      5.98841
  126 1     3      0.40300      3.73473      7.79995      5.04632
  127 1     3      0.39900      3.94184      5.37047     11.20321
  128 1     3      0.34800      3.91117      3.99063     10.25311
  129 1     5     -0.86000     -1.14951     10.60485     26.77586
  130 1     5     -0.83000     -2.61836      8.38138     27.45039
  131 1     1      0.97500     -2.19609      7.52652     26.62327
  132 1     5     -0.83100     -1.05026      7.02071     26.77539
  133 1     5     -0.85700      1.60053      6.86812     27.46540
  134 1     1      1.02000      2.14468      7.66498     26.64665
  135 1     5     -0.78500      1.98151      8.91103     26.77670
  136 1     5     -0.78700      0.79607     11.29565     27.48446
  137 1     1      1.01900     -0.14537     11.36041     26.64806
  138 1     5     -0.86000     -0.91938     11.29611     29.54896
  139 1     5     -0.83100     -2.16189      8.93784     30.23018
  140 1     1      0.97500     -2.33184      7.69430     30.37163
  141 1     5     -0.83100     -1.80321      6.89052     29.54987
  142 1     5     -0.85700      0.85065      7.02994     30.24209
  143 1     1      1.02000      2.00539      7.51732     30.37878
  144 1     5     -0.78500      2.45482      8.33330     29.52821
  145 1     5     -0.78700      1.02344     10.56496     30.24601
  146 1     1      1.01900      0.02572     11.32473     30.38747
  147 1     2      1.93700     -1.60302      9.74001     28.50055
  148 1     2      1.93200     -0.09903      7.07955     28.50825
  149 1     2      1.39100      1.45126      9.71391     28.50811
  150 1     6     -1.23700     -0.08452      8.84427     28.50353
  151 1     5     -0.86000      8.38943      2.04604     19.28475
  152 1     5     -0.83000      9.61776      4.40634     18.62104
  153 1     1      0.97500      9.78657      5.64784     18.47729
  154 1     5     -0.83100      9.27631      6.45301     19.30935
  155 1     5     -0.85700      6.61874      6.33472     18.64928
  156 1     1      1.02000      5.46896      5.84361     18.48878
  157 1     5     -0.78500      5.01882      5.01593     19.33044
  158 1     5     -0.78700      6.44922      2.79507     18.60218
  159 1     1      1.01900      7.43680      2.02615     18.45060
  160 1     5     -0.86000      8.65656      2.73875     22.06910
  161 1     5     -0.83100     10.12936      4.95848     21.39895
  162 1     1      0.97500      9.71967      5.82762     22.22208
  163 1     5     -0.83100      8.56209      6.31436     22.09631
  164 1     5     -0.85700      5.89910      6.46255     21.43272
  165 1     1      1.02000      5.35086      5.65570     22.23864
  166 1     5     -0.78500      5.50660      4.41227     22.08961
  167 1     5     -0.78700      6.70682      2.04942     21.36307
  168 1     1      1.01900      7.64135      2.00379     22.21026
  169 1     2      1.93700      9.08890      3.60206     20.34537
  170 1     2      1.93200      7.58635      6.26400     20.37206
  171 1     2      1.39100      6.03322      3.63055     20.34840
  172 1     6     -1.23700      7.56992      4.50015     20.35919
  173 1     1     -0.27000     26.69564      5.28324     16.45154
  174 1     1     -0.15000     10.61781      6.15462     17.35274
  175 1     1      0.35600     10.84723      7.49260      0.78669
  176 1     1     -0.26400     11.49176      8.12858     32.27917
  177 1     1     -0.15700     -3.16368      7.17008     31.49195
  178 1     1      0.36700     -3.23699      5.72500     15.37483
  179 1     4     -0.89900     -2.59455      4.75392     14.53966
  180 1     3      0.17800     26.60320      4.21653     16.61864
  181 1     3      0.17800     11.52447      9.19155     32.07122
  182 1     4     -0.88900     10.07858      8.44360      1.53319
  183 1     3      0.35200     27.37959      4.13137     14.13567
  184 1     3      0.40300     27.72848      4.12153     30.72492
  185 1     3      0.39900      9.62264      9.13979     17.37400
  186 1     3      0.34800     10.73773      9.13680      1.95546
  187 1     1     -0.27000     -2.52822      6.21165     24.53750
  188 1     1     -0.15000     -3.05863      7.09703     25.49127
  189 1     1      0.35600     -4.39347      7.55343     25.32467
  190 1     1     -0.26400     10.01528      6.82997     24.48381
  191 1     1     -0.15700     10.60360      6.28573     23.32956
  192 1     1      0.36700     12.01872      6.19573     23.26878
  193 1     4     -0.89900     12.70959      5.70634     22.11316
  194 1     3      0.17800     -1.50941      5.85439     24.63254
  195 1     3      0.17800      8.93632      6.90590     24.55601
  196 1     4     -0.88900     25.68288      8.46287     26.23197
  197 1     3      0.34000     12.40736      6.25968     21.27897
  198 1     3      0.40300     12.47156      4.69889     21.97389
  199 1     3      0.39900     -4.49761      9.36343     26.24188
  200 1     3      0.34800     25.66709      8.03888     27.18726
  201 1     1     -0.27000      8.75098      0.65339     23.97037
  202 1     1     -0.15000      7.56180      1.05678     23.34457
  203 1     1      0.35600     -0.98453     13.05961     23.37686
  204 1     1     -0.26400     -0.99246     12.19347     24.47106
  205 1     1     -0.15700     -0.07677     12.33146     25.52504
  206 1     1      0.36700     -6.51151     25.91969     25.05206
  207 1     4     -0.89900     -5.24861     25.53557     25.60956
  208 1     3      0.17800      9.70620      1.01649     23.60863
  209 1     3      0.17800     -1.72538     11.39506     24.48740
  210 1     4     -0.88900     -1.95120     12.82415     22.34615
  211 1     3      0.35200     -5.16439     24.49440     25.57207
  212 1     3      0.40300      1.34940     13.76051     27.40005
  213 1     3      0.39900      4.99563      0.62070     22.30348
  214 1     3      0.34800     -2.59111     13.64766     22.28177
  215 1     1     -0.27000     -0.78630     13.47008     31.33719
  216 1     1     -0.15000     -0.04089     12.29026     31.50606
  217 1     1      0.35600      0.76735     11.86435      0.19896
  218 1     1     -0.26400     -7.06420     26.01075     17.48082
  219 1     1     -0.15700      7.47754      1.06485     17.32186
  220 1     1      0.36700      6.84642      1.33605     16.08691
  221 1     4     -0.89900      6.14640      2.57604     15.88118
  222 1     3      0.17800     -1.27934     13.65977     30.39105
  223 1     3      0.17800     -6.59110     25.79295     18.43101
  224 1     4     -0.88900      1.47311     10.63101      0.42406
  225 1     3      0.35200      5.73025      2.61211     14.92265
  226 1     3      0.40300      6.85022      3.34824     15.92874
  227 1     3      0.39900      0.77273      9.85485      0.39093
  228 1     3      0.34800      1.89047     10.61325      1.38257
  229 1     1     -0.27000      4.25669      7.31660     31.39800
  230 1     1     -0.15000      2.86740      7.12996     31.51027
  231 1     1      0.35600      2.49269      5.98906     16.13829
  232 1     1     -0.26400      3.34043      5.66103     17.20527
  233 1     1     -0.15700      4.62218      6.23220     17.33041
  234 1     1      0.36700      5.12312      6.98432     32.44887
  235 1     4     -0.89900      6.54327      7.15382     32.29245
  236 1     3      0.17800      4.67401      7.70547     30.47677
  237 1     3      0.17800      2.98370      4.95195     17.94275
  238 1     4     -0.88900      1.19732      5.38162     16.05856
  239 1     3      0.35200      6.76637      7.58120     31.36461
  240 1     3      0.40300      6.97735      6.20240     32.29199
  241 1     3      0.39900      0.67235      5.61421     16.93247
  242 1     3      0.34800      1.32437      4.34435     16.02304
  243 1     1     -0.27000      3.25930      7.96075     24.44173
  244 1     1     -0.15000      2.98561      7.13266     25.54134
  245 1     1      0.35600      3.48866      5.80762     25.54502
  246 1     1     -0.26400      4.23691      5.34697     24.44743
  247 1     1     -0.15700      4.50993      6.17699     23.34818
  248 1     1      0.36700      4.00005      7.49807     23.34204
  249 1     4     -0.89900      4.21212      8.36254     22.21215
  250 1     3      0.17800      2.86621      8.97028     24.42344
  251 1     3      0.17800      4.63142      4.33813     24.46445
  252 1     4     -0.88900      3.25714      4.93610     26.66572
  253 1     3      0.35200      3.79683      9.30702     22.38197
  254 1     3      0.40300      3.69349      7.95299     21.40160
  255 1     3      0.39900      3.77130      5.33370     27.48494
  256 1     3      0.34800      3.66515      3.98916     26.49146
  257 1     5     -0.86000     -8.72537     23.62655     10.46410
  258 1     5     -0.83000    -10.20030     21.42682     11.17745
  259 1     1      0.97500     -9.78261     20.58489     10.33397
  260 1     5     -0.83100     -8.63590     20.07365     10.47188
  261 1     5     -0.85700     -5.96184     19.90064     11.13116
  262 1     1      1.02000     -5.39460     20.70109     10.32993
  263 1     5     -0.78500     -5.54725     21.94671     10.47010
  264 1     5     -0.78700     -6.76353     24.31796     11.14211
  265 1     1      1.01900     -7.70592     24.35213     10.30295
  266 1     5     -0.86000     -8.46541     24.36777     13.22399
  267 1     5     -0.83100     -9.68733     22.00867     13.94667
  268 1     1      0.97500     -9.84748     20.76597     14.10353
  269 1     5     -0.83100     -9.34321     19.95816     13.26835
  270 1     5     -0.85700     -6.68457     20.06107     13.91919
  271 1     1      1.02000     -5.53593     20.55691     14.07559
  272 1     5     -0.78500     -5.08849     21.39452     13.24290
  273 1     5     -0.78700     -6.53013     23.62969     13.92599
  274 1     1      1.01900     -7.52495     24.39306     14.06765
  275 1     2      1.93700     -9.15704     22.79087     12.20249
  276 1     2      1.93200     -7.65442     20.12643     12.19578
  277 1     2      1.39100     -6.09652     22.76048     12.19535
  278 1     6     -1.23700     -7.63430     21.89125     12.19440
  279 1     5     -0.86000      0.88474     15.05150      2.95666
  280 1     5     -0.83000      2.08774     17.43302      2.26583
  281 1     1      0.97500      2.24638     18.67919      2.13461
  282 1     5     -0.83100      1.71790     19.47245      2.96470
  283 1     5     -0.85700     -0.94711     19.32353      2.31935
  284 1     1      1.02000     -2.09851     18.82541      2.18672
  285 1     5     -0.78500     -2.52852     17.98859      3.02988
  286 1     5     -0.78700     -1.08051     15.76401      2.30183
  287 1     1      1.01900     -0.08578     15.00236      2.14749
  288 1     5     -0.86000      1.17203     15.74039      5.73007
  289 1     5     -0.83100      2.60591     17.98203      5.02802
  290 1     1      0.97500      2.19213     18.82726      5.86936
  291 1     5     -0.83100      1.03404     19.31659      5.74648
  292 1     5     -0.85700     -1.64182     19.45885      5.11095
  293 1     1      1.02000     -2.17427     18.65550      5.93114
  294 1     5     -0.78500     -2.00359     17.41133      5.79305
  295 1     5     -0.78700     -0.78586     15.04885      5.05377
  296 1     1      1.01900      0.16378     14.99572      5.88196
  297 1     2      1.93700      1.57395     16.61652      3.99707
  298 1     2      1.93200      0.03999     19.26415      4.03484
  299 1     2      1.39100     -1.48649     16.61791      4.04461
  300 1     6     -1.23700      0.04296     17.49970      4.02601
  301 1     1     -0.27000     18.83108     18.27728      0.10411
  302 1     1     -0.15000      3.09329     19.21556      1.03645
  303 1     1      0.35600      3.54602     20.57602     17.40315
  304 1     1     -0.26400      4.31167     21.02280     16.31575
  305 1     1     -0.15700    -10.66692     20.25077     15.23951
  306 1     1      0.36700     19.41854     18.90269     31.55112
  307 1     4     -0.89900     19.85793     17.94804     30.57748
  308 1     3      0.17800     18.61462     17.21871      0.18703
  309 1     3      0.17800      4.75312     22.01166     16.36066
  310 1     4     -0.88900      3.38137     21.43015     18.54139
  311 1     3      0.35200     19.01449     17.47294     30.18201
  312 1     3      0.40300     -9.38277     17.38722     15.44158
  313 1     3      0.39900      1.69831     22.02087      0.75165
  314 1     3      0.34800      4.32989     21.66153     18.91587
  315 1     1     -0.27000    -10.45972     18.89508      8.64110
  316 1     1     -0.15000    -10.66395     20.15828      9.21562
  317 1     1      0.35600    -11.69828     20.98231      8.69741
  318 1     1     -0.26400      2.58407     20.21804      7.89290
  319 1     1     -0.15700      3.07347     19.26150      6.98900
  320 1     1      0.36700      4.37674     18.73454      7.20233
  321 1     4     -0.89900      4.97284     17.75850      6.33926
  322 1     3      0.17800     -9.67644     18.24852      9.01978
  323 1     3      0.17800      1.59533     20.64046      7.75681
  324 1     4     -0.88900    -11.93178     22.31399      9.17202
  325 1     3      0.34000      5.04143     18.15271      5.37366
  326 1     3      0.40300      4.38096     16.89701      6.33702
  327 1     3      0.39900    -11.04423     22.86062      9.09302
  328 1     3      0.34800    -12.23460     22.27443     10.17074
  329 1     1     -0.27000      1.28474     13.68784      7.67839
  330 1     1     -0.15000      0.10046     14.02840      7.00591
  331 1     1      0.35600      6.41684      0.51306      7.54297
  332 1     1     -0.26400     -8.83412     25.76951      8.61538
  333 1     1     -0.15700     -7.63620     25.28697      9.16081
  334 1     1      0.36700      1.27964     12.79567      8.75560
  335 1     4     -0.89900      2.53943     12.48119      9.36141
  336 1     3      0.17800      2.23050     14.11179      7.36101
  337 1     3      0.17800     -9.78510     25.46603      9.03836
  338 1     4     -0.88900      5.14958      0.99273      7.07753
  339 1     3      0.35200      2.68424     11.44650      9.32404
  340 1     3      0.40300     -4.98416     25.53351     10.03648
  341 1     3      0.39900     -2.38346     13.42577      5.84648
  342 1     3      0.34800      5.14529      2.03625      7.12557
  343 1     1     -0.27000      6.93354      0.39419     15.04604
  344 1     1     -0.15000     -7.59412     25.34685     15.20120
  345 1     1      0.35600     -6.97875     25.06900     16.44111
  346 1     1     -0.26400      0.68322     12.82727      1.21861
  347 1     1     -0.15700     -0.05049     14.01476      1.04449
  348 1     1      0.36700     -0.87818     14.42834     32.35913
  349 1     4     -0.89900     -1.60768     15.64837     32.14110
  350 1     3      0.17800      6.45716      0.60952     14.09684
  351 1     3      0.17800      1.17638     12.63868      2.16491
  352 1     4     -0.88900     -6.29239     23.82239     16.65121
  353 1     3      0.35200     -2.04489     15.65363     31.19121
  354 1     3      0.40300     -0.91805     16.43374     32.15435
  355 1     3      0.39900     -7.00216     23.05634     16.59326
  356 1     3      0.34800     -5.88800     23.78000     17.61449
  357 1     1     -0.27000     -3.29823     20.39062     15.15204
  358 1     1     -0.15000     -4.68286     20.15095     15.21576
  359 1     1      0.35600     -5.23698     19.49457      0.17497
  360 1     1     -0.26400     -4.36765     19.13487      1.21483
  361 1     1     -0.15700     -2.97234     19.22765      1.06245
  362 1     1      0.36700     -2.44370     20.02354     16.20443
  363 1     4     -0.89900     -1.02528     20.23299     16.08487
  364 1     3      0.17800     -2.87324     20.84359     14.26435
  365 1     3      0.17800     -4.79016     18.80223      2.15590
  366 1     4     -0.88900     -6.65334     19.44493      0.38590
  367 1     3      0.35200     -0.79492     20.70883     15.18276
  368 1     3      0.40300     -0.56913     19.29256     16.04762
  369 1     3      0.39900     -6.88440     20.06280      1.19727
  370 1     3      0.34800     -6.91071     18.46444      0.64189
  371 1     1     -0.27000     -4.37651     20.93690      8.06299
  372 1     1     -0.15000     -4.54177     20.17102      9.22806
  373 1     1      0.35600     -3.91642     18.90287      9.30653
  374 1     1     -0.26400     -3.17490     18.42101      8.20967
  375 1     1     -0.15700     -3.01426     19.18570      7.04237
  376 1     1      0.36700     -3.62984     20.45981      6.96957
  377 1     4     -0.89900     -3.51856     21.25853      5.77842
  378 1     3      0.17800     -4.86086     21.90279      7.99016
  379 1     3      0.17800     -2.69331     17.45274      8.27978
  380 1     4     -0.88900     -4.01187     18.11751     10.50733
  381 1     3      0.35200     -4.00907     22.17430      5.89751
  382 1     3      0.40300     -4.01720     20.75191      5.01134
  383 1     3      0.39900     -3.51867     18.64137     11.26634
  384 1     3      0.34800     -3.50652     17.20876     10.39691
  385 1     5     -0.86000     -8.85534     23.70423     26.76010
  386 1     5     -0.83000    -10.36847     21.49577     27.40087
  387 1     1      0.97500     -9.95596     20.60516     26.60590
  388 1     5     -0.83100     -8.80542     20.10734     26.75044
  389 1     5     -0.85700     -6.14629     19.94008     27.43504
  390 1     1      1.02000     -5.58861     20.74134     26.62653
  391 1     5     -0.78500     -5.73747     21.98731     26.77421
  392 1     5     -0.78700     -6.91073     24.37404     27.49704
  393 1     1      1.01900     -7.83713     24.44123     26.64464
  394 1     5     -0.86000     -8.64935     24.37638     29.54322
  395 1     5     -0.83100     -9.93412     22.03265     30.18043
  396 1     1      0.97500    -10.11280     20.79065     30.31897
  397 1     5     -0.83100     -9.56045     19.98202     29.51787
  398 1     5     -0.85700     -6.90675     20.08540     30.22731
  399 1     1      1.02000     -5.74496     20.55343     30.37176
  400 1     5     -0.78500     -5.28905     21.38254     29.53593
  401 1     5     -0.78700     -6.71789     23.62510     30.25138
  402 1     1      1.01900     -7.70924     24.39500     30.38905
  403 1     2      1.93700     -9.33879     22.83556     28.47073
  404 1     2      1.93200     -7.85079     20.15867     28.48381
  405 1     2      1.39100     -6.27901     22.77925     28.51299
  406 1     6     -1.23700     -7.82517     21.92357     28.48761
  407 1     5     -0.86000      0.77794     15.13096     19.27432
  408 1     5     -0.83000      1.96755     17.51847     18.60792
  409 1     1      0.97500      2.15241     18.76115     18.49576
  410 1     5     -0.83100      1.65277     19.55498     19.34654
  411 1     5     -0.85700     -1.00052     19.47749     18.67400